VARIABLES=X,Y
ZONE T="UNSTRUCTURED-COUNTOUR"
ZONETYPE=FEPOLYGON
 NODES=       36273
 ELEMENTS=        2240
 FACES=        8960
 NumConnectedBoundaryFaces=0
 TotalNumBoundaryConnections=0
   2400.9999999999868     
   2261.8662617928080     
   2122.7325235856292     
   1983.5987853784500     
   1844.4650471712710     
   1705.3313089640919     
   1566.1975707569129     
   1427.0638325497339     
   1287.9300943425551     
   1148.7963561353770     
   1009.6626179281971     
   870.52887972101848     
   731.39514151383946     
   592.26140330666044     
   453.12766509948142     
   313.99392689230251     
   174.86018868512349     
   164.78084036342949     
   154.70149204173541     
   144.62214372004141     
   134.54279539834741     
   124.46344707665340     
   114.38409875495940     
   104.30475043326540     
   94.225402111571370     
   84.146053789877357     
   74.066705468183358     
   63.987357146489337     
   53.908008824795317     
   43.828660503101311     
   33.749312181407298     
   23.669963859713281     
   13.590615538019270     
   12.860431300183610     
   12.130247062347941     
   11.400062824512281     
   10.669878586676621     
   9.9396943488409502     
   9.2095101110052866     
   8.4793258731696213     
   7.7491416353339559     
   7.0189573974982924     
   6.2887731596626271     
   5.5585889218269626     
   4.8284046839912982     
   4.0982204461556329     
   3.3680362083199689     
   2.6378519704843040     
   1.9076677326486400     
   1.8547705607118290     
   1.8018733887750180     
   1.7489762168382079     
   1.6960790449013980     
   1.6431818729645871     
   1.5902847010277770     
   1.5373875290909660     
   1.4844903571541559     
   1.4315931852173449     
   1.3786960132805350     
   1.3257988413437241     
   1.2729016694069140     
   1.2200044974701030     
   1.1671073255332931     
   1.1142101535964830     
   1.0613129816596720     
   1.0574809203059430     
   1.0536488589522131     
   1.0498167975984840     
   1.0459847362447541     
   1.0421526748910250     
   1.0383206135372951     
   1.0344885521835661     
   1.0306564908298359     
   1.0268244294761071     
   1.0229923681223769     
   1.0191603067686470     
   1.0153282454149180     
   1.0114961840611880     
   1.0076641227074590     
   1.0038320613537290     
   1.0000000000000000     
  0.99401549879189910     
  0.98803005424831736     
  0.98204368393017860     
  0.97605640539840732     
  0.97006823619957816     
  0.96407919320874169     
  0.95808929235646345     
  0.95209854946413275     
  0.94610698022378226     
  0.94011460011440906     
  0.93412142295992262     
  0.92812746171533655     
  0.92213272932796986     
  0.91613723874514141     
  0.91014100291417011     
  0.90414403478237482     
  0.88056742477102679     
  0.85698032015921943     
  0.83338328798191663     
  0.80977679734080288     
  0.78616124986678204     
  0.76253697409355270     
  0.73890421923717231     
  0.71526318322662930     
  0.69161401998838623     
  0.66795681227243964     
  0.64429162449024979     
  0.62061846982200364     
  0.59693734622294625     
  0.57324823604902031     
  0.54955111079281560     
  0.52584596530380634     
  0.50426289145558134     
  0.48267323368300241     
  0.46107702239884191     
  0.43947430795318099     
  0.41786542360615009     
  0.39625091278025149     
  0.37463132388157588     
  0.35300720531621399     
  0.33137920464729620     
  0.30974867491434288     
  0.28811727495742701     
  0.26648674216329471     
  0.24486023635620741     
  0.22324216639387920     
  0.20163700443531260     
  0.18005100899545001     
  0.16921323859441961     
  0.15838403547840590     
  0.14756562726036090     
  0.13676061633373529     
  0.12597160667167889     
  0.11520171681959170     
  0.10445574778608790     
   9.3738941308276869E-002
   8.3059914522600808E-002
   7.2431445028808175E-002
   6.1867667665709322E-002
   5.1391611866845398E-002
   4.1035740785175613E-002
   3.0881040560412451E-002
   2.1046344370142779E-002
   1.1808155672745060E-002
   1.0678761607976079E-002
   9.5745369174997617E-003
   8.4977559209279512E-003
   7.4518727145318434E-003
   6.4425552926707323E-003
   5.4757155326914924E-003
   4.5573341145613306E-003
   3.6951504177245450E-003
   2.8987663887731410E-003
   2.1778735718970630E-003
   1.5422530467607189E-003
   1.0026319308534420E-003
   5.7030549025360172E-004
   2.5578404403442471E-004
   6.4524611907081206E-005
   5.2323596844150436E-015
   6.4525289338219328E-005
   2.5579126192660021E-004
   5.7032486546205487E-004
   1.0026684628991109E-003
   1.5423108683818500E-003
   2.1779560382147209E-003
   2.8988762393070688E-003
   3.6952897553519438E-003
   4.5575043675257446E-003
   5.4759175648956618E-003
   6.4427900015143523E-003
   7.4521406682838843E-003
   8.4980572763285554E-003
   9.5748717243809463E-003
   1.0679130409086100E-002
   1.1808558888917940E-002
   2.1046760195661280E-002
   3.0881445286748532E-002
   4.1036126133091870E-002
   5.1391972731084673E-002
   6.1868001638690218E-002
   7.2431750746326434E-002
   8.3060191105672213E-002
   9.3739188126511747E-002
  0.10445596434882801     
  0.11520190283906651     
  0.12597176192074880     
  0.13676074064255600     
  0.14756572050642980     
  0.15838409756186830     
  0.16921326943805221     
  0.18005100854435260     
  0.20163700401542700     
  0.22324216600542529     
  0.24486023599930751     
  0.26648674183804699     
  0.28811727466390608     
  0.30974867465257983     
  0.33137920441730900     
  0.35300720511801231     
  0.37463132371515712     
  0.39625091264560641     
  0.41786542350326727     
  0.43947430788204639     
  0.46107702235943959     
  0.48267323367531328     
  0.50426289147958636     
  0.52584596535948602     
  0.54955111084499908     
  0.57324823609770992     
  0.59693734626814454     
  0.62061846986371283     
  0.64429162452847233     
  0.66795681230717796     
  0.69161402001964256     
  0.71526318325440574     
  0.73890421926147098     
  0.76253697411437638     
  0.78616124988413294     
  0.80977679735468311     
  0.83338328799232841     
  0.85698032016616588     
  0.88056742477451044     
  0.90414403478239858     
  0.91014100291419242     
  0.91613723874516229     
  0.92213272932798906     
  0.92812746171535454     
  0.93412142295993916     
  0.94011460011442383     
  0.94610698022379558     
  0.95209854946414441     
  0.95808929235647367     
  0.96407919320875024     
  0.97006823619958549     
  0.97605640539841299     
  0.98204368393018315     
  0.98803005424832013     
  0.99401549879190076     
   1.0000000000000000     
   1.0038320613537290     
   1.0076641227074590     
   1.0114961840611880     
   1.0153282454149180     
   1.0191603067686470     
   1.0229923681223769     
   1.0268244294761071     
   1.0306564908298359     
   1.0344885521835661     
   1.0383206135372951     
   1.0421526748910250     
   1.0459847362447541     
   1.0498167975984840     
   1.0536488589522131     
   1.0574809203059430     
   1.0613129816596720     
   1.1142101535964830     
   1.1671073255332931     
   1.2200044974701030     
   1.2729016694069140     
   1.3257988413437241     
   1.3786960132805350     
   1.4315931852173449     
   1.4844903571541559     
   1.5373875290909660     
   1.5902847010277770     
   1.6431818729645871     
   1.6960790449013980     
   1.7489762168382079     
   1.8018733887750180     
   1.8547705607118290     
   1.9076677326486400     
   2.6378519704843040     
   3.3680362083199689     
   4.0982204461556329     
   4.8284046839912982     
   5.5585889218269626     
   6.2887731596626271     
   7.0189573974982924     
   7.7491416353339559     
   8.4793258731696213     
   9.2095101110052866     
   9.9396943488409502     
   10.669878586676621     
   11.400062824512281     
   12.130247062347941     
   12.860431300183610     
   13.590615538019270     
   23.669963859713281     
   33.749312181407298     
   43.828660503101311     
   53.908008824795317     
   63.987357146489337     
   74.066705468183358     
   84.146053789877357     
   94.225402111571370     
   104.30475043326540     
   114.38409875495940     
   124.46344707665340     
   134.54279539834741     
   144.62214372004141     
   154.70149204173541     
   164.78084036342949     
   174.86018868512349     
   313.99392689230251     
   453.12766509948142     
   592.26140330666044     
   731.39514151383946     
   870.52887972101848     
   1009.6626179281971     
   1148.7963561353770     
   1287.9300943425551     
   1427.0638325497339     
   1566.1975707569129     
   1705.3313089640919     
   1844.4650471712710     
   1983.5987853784500     
   2122.7325235856292     
   2261.8662617928080     
   2400.9999999999868     
   2400.9999999999868     
   2261.9345744736770     
   2122.8607689045189     
   1983.7785832925140     
   1844.6880176376610     
   1705.5890719399611     
   1566.4817461994130     
   1427.3660404160180     
   1288.2419545897751     
   1149.1094887206850     
   1009.9686428087480     
   870.81941685396248     
   731.66181085632979     
   592.49582481584957     
   453.32145873252188     
   314.13871260634693     
   174.94758643732419     
   164.86230252021861     
   154.77714557220361     
   144.69211559327920     
   134.60721258344560     
   124.52243654270249     
   114.43778747105010     
   104.35326536848839     
   94.268870235017346     
   84.184602070636942     
   74.100460875347196     
   64.016446649148094     
   53.932559392039643     
   43.848799104021857     
   33.765165785094730     
   23.681659435258261     
   13.598280054512440     
   12.867655323684151     
   12.137042816714580     
   11.406442533603730     
   10.675854474351610     
   9.9452786389582126     
   9.2147150274235390     
   8.4841636397475888     
   7.7536244759303630     
   7.0230975359718624     
   6.2925828198720826     
   5.5620803276310298     
   4.8315900592487004     
   4.1011120147250937     
   3.3706461940602122     
   2.6401925972540541     
   1.9097512243066199     
   1.8567740239172721     
   1.8037976690635911     
   1.7508221597455771     
   1.6978474959632299     
   1.6448736777165489     
   1.5919007050055360     
   1.5389285778301891     
   1.4859572961905090     
   1.4329868600864950     
   1.3800172695181490     
   1.3270485244854691     
   1.2740806249884571     
   1.2211135710271110     
   1.1681473626014320     
   1.1151819997114190     
   1.0622174823570740     
   1.0583283251606850     
   1.0544392252297681     
   1.0505501825643240     
   1.0466611971643520     
   1.0427722690298531     
   1.0388833981608261     
   1.0349945845572710     
   1.0311058282191889     
   1.0272171291465799     
   1.0233284873394430     
   1.0194399027977781     
   1.0155513755215859     
   1.0116629055108659     
   1.0077744927656189     
   1.0038861372858450     
  0.99999783907154227     
  0.99392834003369734     
  0.98785816700686424     
  0.98178736038772207     
  0.97571596049464415     
  0.96964400754718871     
  0.96357154100227849     
  0.95749859927493564     
  0.95142522056818635     
  0.94535144284681838     
  0.93927730374762142     
  0.93320283913024060     
  0.92712808385805290     
  0.92105307265412206     
  0.91497784010301553     
  0.90890242064495630     
  0.90282684857001250     
  0.87915929806268245     
  0.85548210480491871     
  0.83179586892209001     
  0.80810109227191274     
  0.78439820891254575     
  0.76068757945573517     
  0.73696948482628866     
  0.71324415429655186     
  0.68951177275982967     
  0.66577245352240277     
  0.64202629116116583     
  0.61827332859274253     
  0.59451359308702612     
  0.57074709587520955     
  0.54697383687103251     
  0.52319383889335658     
  0.50153847469747981     
  0.47987781622467540     
  0.45821191904177649     
  0.43654085816524513     
  0.41486499115908981     
  0.39318488531451451     
  0.37150111233292382     
  0.34981424331864819     
  0.32812494796222041     
  0.30643460112096749     
  0.28474488288013722     
  0.26305755113682577     
  0.24137578603575630     
  0.21970401633229489     
  0.19804673298455741     
  0.17641021276104499     
  0.16552777459443441     
  0.15465525843255670     
  0.14379490479099091     
  0.13294932853034319     
  0.12212114547932840     
  0.11131348556731301     
  0.10053116101607100     
   8.9779424047306267E-002
   7.9066902298284225E-002
   6.8406383732663556E-002
   5.7812012091495807E-002
   4.7306825597361941E-002
   3.6923294561069790E-002
   2.6742417130859269E-002
   1.6883031968176310E-002
   7.6216474386319724E-003
   6.4723344148871686E-003
   5.3494529738206007E-003
   4.2552817751011279E-003
   3.1932791077203802E-003
   2.1691171628156342E-003
   1.1887115480257321E-003
   2.5804618112763508E-004
  -6.1513650281735423E-004
  -1.4212317078893520E-003
  -2.1505455465474560E-003
  -2.7932950330594661E-003
  -3.3387513691872490E-003
  -3.7756177982306771E-003
  -4.0933827596880247E-003
  -4.2865886697114001E-003
  -4.3517622526045487E-003
  -4.2865879921951790E-003
  -4.0933755407994337E-003
  -3.7755984202773049E-003
  -3.3387148318161980E-003
  -2.7932372027115659E-003
  -2.1504630672749248E-003
  -1.4211218393251001E-003
  -6.1499714123657793E-004
   2.5821646478867659E-004
   1.1889136184573431E-003
   2.1693519182629560E-003
   3.1935471172741111E-003
   4.2555831962655423E-003
   5.3497878571840607E-003
   6.4727033040791210E-003
   7.6220507553559271E-003
   1.6883447894448171E-002
   2.6742821957040010E-002
   3.6923680007275021E-002
   4.7307186557301227E-002
   5.7812346156731038E-002
   6.8406689538158552E-002
   7.9067178964220150E-002
   8.9779670942449596E-002
  0.10053137764891069     
  0.11131367164925809     
  0.12212130078242051     
  0.13294945288392720     
  0.14379499807176491     
  0.15465532053987319     
  0.16552780545028731     
  0.17641021230976359     
  0.19804673256449509     
  0.21970401594367259     
  0.24137578567869711     
  0.26305755081142890     
  0.28474488258647790     
  0.30643460085907781     
  0.32812494773211898     
  0.34981424312034581     
  0.37150111216641851     
  0.39318488517979783     
  0.41486499105615110     
  0.43654085809407112     
  0.45821191900235192     
  0.47987781621698189     
  0.50153847472149904     
  0.52319383894906968     
  0.54697383692324786     
  0.57074709592392936     
  0.59451359313225294     
  0.61827332863447848     
  0.64202629119941323     
  0.66577245355716408     
  0.68951177279110698     
  0.71324415432434718     
  0.73696948485060398     
  0.76068757947657328     
  0.78439820892990886     
  0.80810109228580296     
  0.83179586893250923     
  0.85548210481187015     
  0.87915929806616866     
  0.90282684857003637     
  0.90890242064497861     
  0.91497784010303640     
  0.92105307265414127     
  0.92712808385807088     
  0.93320283913025714     
  0.93927730374763618     
  0.94535144284683170     
  0.95142522056819800     
  0.95749859927494596     
  0.96357154100228704     
  0.96964400754719604     
  0.97571596049464981     
  0.98178736038772663     
  0.98785816700686702     
  0.99392834003369901     
  0.99999783907154227     
   1.0038861372858450     
   1.0077744927656189     
   1.0116629055108659     
   1.0155513755215859     
   1.0194399027977781     
   1.0233284873394430     
   1.0272171291465799     
   1.0311058282191889     
   1.0349945845572710     
   1.0388833981608261     
   1.0427722690298531     
   1.0466611971643520     
   1.0505501825643240     
   1.0544392252297681     
   1.0583283251606850     
   1.0622174823570740     
   1.1151819997114190     
   1.1681473626014320     
   1.2211135710271110     
   1.2740806249884571     
   1.3270485244854691     
   1.3800172695181490     
   1.4329868600864950     
   1.4859572961905090     
   1.5389285778301891     
   1.5919007050055360     
   1.6448736777165489     
   1.6978474959632299     
   1.7508221597455771     
   1.8037976690635911     
   1.8567740239172721     
   1.9097512243066199     
   2.6401925972540541     
   3.3706461940602122     
   4.1011120147250937     
   4.8315900592487004     
   5.5620803276310298     
   6.2925828198720826     
   7.0230975359718624     
   7.7536244759303630     
   8.4841636397475888     
   9.2147150274235390     
   9.9452786389582126     
   10.675854474351610     
   11.406442533603730     
   12.137042816714580     
   12.867655323684151     
   13.598280054512440     
   23.681659435258261     
   33.765165785094730     
   43.848799104021857     
   53.932559392039643     
   64.016446649148094     
   74.100460875347196     
   84.184602070636942     
   94.268870235017346     
   104.35326536848839     
   114.43778747105010     
   124.52243654270249     
   134.60721258344560     
   144.69211559327920     
   154.77714557220361     
   164.86230252021861     
   174.94758643732419     
   314.13871260634693     
   453.32145873252188     
   592.49582481584957     
   731.66181085632979     
   870.81941685396248     
   1009.9686428087480     
   1149.1094887206850     
   1288.2419545897751     
   1427.3660404160180     
   1566.4817461994130     
   1705.5890719399611     
   1844.6880176376610     
   1983.7785832925140     
   2122.8607689045189     
   2261.9345744736770     
   2400.9999999999868     
   2400.9999999999868     
   2262.0028871545460     
   2122.9890142234090     
   1983.9583812065780     
   1844.9109881040511     
   1705.8468349158300     
   1566.7659216419131     
   1427.6682482823021     
   1288.5538148369949     
   1149.4226213059940     
   1010.2746676892980     
   871.10995398690648     
   731.92848019882013     
   592.73024632503882     
   453.51525236556250     
   314.28349832039117     
   175.03498418952501     
   164.94376467700769     
   154.85279910267170     
   144.76208746651699     
   134.67162976854371     
   124.58142600875161     
   114.49147618714090     
   104.40178030371140     
   94.312338358463322     
   84.223150351396512     
   74.134216282511034     
   64.045536151806843     
   53.957109959283962     
   43.868937704942411     
   33.781019388782163     
   23.693355010803231     
   13.605944571005610     
   12.874879347184690     
   12.143838571081210     
   11.412822242695180     
   10.681830362026609     
   9.9508629290754751     
   9.2199199438417931     
   8.4890014063255563     
   7.7581073165267700     
   7.0272376744454306     
   6.2963924800815398     
   5.5655717334350969     
   4.8347754345061018     
   4.1040035832945554     
   3.3732561798004550     
   2.6425332240238042     
   1.9118347159646010     
   1.8587774871227150     
   1.8057219493521639     
   1.7526681026529460     
   1.6996159470250620     
   1.6465654824685110     
   1.5935167089832949     
   1.5404696265694111     
   1.4874242352268621     
   1.4343805349556460     
   1.3813385257557631     
   1.3282982076272150     
   1.2752595805700000     
   1.2222226445841180     
   1.1691873996695701     
   1.1161538458263560     
   1.0631219830544760     
   1.0591757300154270     
   1.0552295915073231     
   1.0512835675301639     
   1.0473376580839500     
   1.0433918631686809     
   1.0394461827843560     
   1.0355006169309771     
   1.0315551656085431     
   1.0276098288170530     
   1.0236646065565089     
   1.0197194988269089     
   1.0157745056282541     
   1.0118296269605440     
   1.0078848628237800     
   1.0039402132179600     
  0.99999567814308443     
  0.99384118127549559     
  0.98768627976541112     
  0.98153103684526555     
  0.97537551559088109     
  0.96921977889479927     
  0.96306388879581528     
  0.95690790619340793     
  0.95075189167223983     
  0.94459590546985450     
  0.93844000738083366     
  0.93228425530055858     
  0.92612870600076913     
  0.91997341598027416     
  0.91381844146088964     
  0.90766383837574249     
  0.90150966235765029     
  0.87775117135433811     
  0.85398388945061798     
  0.83020844986226339     
  0.80642538720302270     
  0.78263516795830945     
  0.75883818481791754     
  0.73503475041540489     
  0.71122512536647442     
  0.68740952553127321     
  0.66358809477236591     
  0.63976095783208187     
  0.61592818736348154     
  0.59208983995110598     
  0.56824595570139891     
  0.54439656294924954     
  0.52054171248290682     
  0.49881405793937839     
  0.47708239876634839     
  0.45534681568471108     
  0.43360740837730932     
  0.41186455871202948     
  0.39011885784877759     
  0.36837090078427182     
  0.34662128132108239     
  0.32487069127714452     
  0.30312052732759209     
  0.28137249080284732     
  0.25962836011035689     
  0.23789133571530510     
  0.21616586627071069     
  0.19445646153380219     
  0.17276941652663999     
  0.16184231059444931     
  0.15092648138670750     
  0.14002418232162081     
  0.12913804072695109     
  0.11827068428697800     
  0.10742525431503420     
   9.6606574246054136E-002
   8.5819906786335651E-002
   7.5073890073967642E-002
   6.4381322436518951E-002
   5.3756356517282312E-002
   4.3222039327878478E-002
   3.2810848336963967E-002
   2.2603793701306090E-002
   1.2719719566209830E-002
   3.4351392045188851E-003
   2.2659072217982609E-003
   1.1243690301414400E-003
   1.2807629274304641E-005
  -1.0653144990910839E-003
  -2.1043209670394639E-003
  -3.0982924366400291E-003
  -4.0412417523060604E-003
  -4.9254234233592539E-003
  -5.7412298045518458E-003
  -6.4789646649919732E-003
  -7.1288431128796511E-003
  -7.6801346692279412E-003
  -8.1215410867149559E-003
  -8.4425495634104751E-003
  -8.6377019513298823E-003
  -8.7035245052143294E-003
  -8.6377012737285774E-003
  -8.4425423435254675E-003
  -8.1215217060166649E-003
  -7.6800981265315073E-003
  -7.1287852738049816E-003
  -6.4788821727645701E-003
  -5.7411199179572703E-003
  -4.9252840378251001E-003
  -4.0410714379483913E-003
  -3.0980903279809748E-003
  -2.1040861649884398E-003
  -1.0650464337356620E-003
   1.3109116202529230E-005
   1.1247039899871750E-003
   2.2662761990721440E-003
   3.4355426217939152E-003
   1.2720135593235050E-002
   2.2604198627331481E-002
   3.2811233881458172E-002
   4.3222400383517781E-002
   5.3756690674771859E-002
   6.4381628329990670E-002
   7.5074166822768074E-002
   8.5820153758387432E-002
   9.6606790948993354E-002
  0.10742544045944970     
  0.11827083964409220     
  0.12913816512529841     
  0.14002427563709979     
  0.15092654351787810     
  0.16184234146252249     
  0.17276941607517449     
  0.19445646111356329     
  0.21616586588191991     
  0.23789133535808660     
  0.25962835978481069     
  0.28137249050904972     
  0.30312052706557580     
  0.32487069104692912     
  0.34662128112267931     
  0.36837090061767980     
  0.39011885771398919     
  0.41186455860903493     
  0.43360740830609568     
  0.45534681564526408     
  0.47708239875865038     
  0.49881405796341172     
  0.52054171253865322     
  0.54439656300149664     
  0.56824595575014891     
  0.59208983999636133     
  0.61592818740524413     
  0.63976095787035414     
  0.66358809480715009     
  0.68740952556257129     
  0.71122512539428850     
  0.73503475043973698     
  0.75883818483877019     
  0.78263516797568489     
  0.80642538721692270     
  0.83020844987269016     
  0.85398388945757453     
  0.87775117135782688     
  0.90150966235767405     
  0.90766383837576481     
  0.91381844146091051     
  0.91997341598029336     
  0.92612870600078712     
  0.93228425530057524     
  0.93844000738084843     
  0.94459590546986782     
  0.95075189167225149     
  0.95690790619341815     
  0.96306388879582383     
  0.96921977889480659     
  0.97537551559088675     
  0.98153103684527010     
  0.98768627976541390     
  0.99384118127549725     
  0.99999567814308443     
   1.0039402132179600     
   1.0078848628237800     
   1.0118296269605440     
   1.0157745056282541     
   1.0197194988269089     
   1.0236646065565089     
   1.0276098288170530     
   1.0315551656085431     
   1.0355006169309771     
   1.0394461827843560     
   1.0433918631686809     
   1.0473376580839500     
   1.0512835675301639     
   1.0552295915073231     
   1.0591757300154270     
   1.0631219830544760     
   1.1161538458263560     
   1.1691873996695701     
   1.2222226445841180     
   1.2752595805700000     
   1.3282982076272150     
   1.3813385257557631     
   1.4343805349556460     
   1.4874242352268621     
   1.5404696265694111     
   1.5935167089832949     
   1.6465654824685110     
   1.6996159470250620     
   1.7526681026529460     
   1.8057219493521639     
   1.8587774871227150     
   1.9118347159646010     
   2.6425332240238042     
   3.3732561798004550     
   4.1040035832945554     
   4.8347754345061018     
   5.5655717334350969     
   6.2963924800815398     
   7.0272376744454306     
   7.7581073165267700     
   8.4890014063255563     
   9.2199199438417931     
   9.9508629290754751     
   10.681830362026609     
   11.412822242695180     
   12.143838571081210     
   12.874879347184690     
   13.605944571005610     
   23.693355010803231     
   33.781019388782163     
   43.868937704942411     
   53.957109959283962     
   64.045536151806843     
   74.134216282511034     
   84.223150351396512     
   94.312338358463322     
   104.40178030371140     
   114.49147618714090     
   124.58142600875161     
   134.67162976854371     
   144.76208746651699     
   154.85279910267170     
   164.94376467700769     
   175.03498418952501     
   314.28349832039117     
   453.51525236556250     
   592.73024632503882     
   731.92848019882013     
   871.10995398690648     
   1010.2746676892980     
   1149.4226213059940     
   1288.5538148369949     
   1427.6682482823021     
   1566.7659216419131     
   1705.8468349158300     
   1844.9109881040511     
   1983.9583812065780     
   2122.9890142234090     
   2262.0028871545460     
   2400.9999999999868     
   2400.9999999999868     
   2262.0711998354150     
   2123.1172595422991     
   1984.1381791206411     
   1845.1339585704411     
   1706.1045978916991     
   1567.0500970844130     
   1427.9704561485860     
   1288.8656750842160     
   1149.7357538913029     
   1010.5806925698480     
   871.40049111985047     
   732.19514954131046     
   592.96466783422795     
   453.70904599860302     
   314.42828403443559     
   175.12238194172579     
   165.02522683379681     
   154.92845263313981     
   144.83205933975481     
   134.73604695364179     
   124.64041547480070     
   114.54516490323159     
   104.45029523893450     
   94.355806481909298     
   84.261698632156097     
   74.167971689674872     
   64.074625654465592     
   53.981660526528287     
   43.889076305862957     
   33.796872992469588     
   23.705050586348200     
   13.613609087498769     
   12.882103370685220     
   12.150634325447840     
   11.419201951786640     
   10.687806249701600     
   9.9564472191927358     
   9.2251248602600455     
   8.4938391729035256     
   7.7625901571231761     
   7.0313778129190014     
   6.3002021402909962     
   5.5690631392391641     
   4.8379608097635041     
   4.1068951518640144     
   3.3758661655406992     
   2.6448738507935539     
   1.9139182076225809     
   1.8607809503281589     
   1.8076462296407370     
   1.7545140455603150     
   1.7013843980868939     
   1.6482572872204730     
   1.5951327129610540     
   1.5420106753086340     
   1.4888911742632140     
   1.4357742098247961     
   1.3826597819933770     
   1.3295478907689600     
   1.2764385361515420     
   1.2233317181411250     
   1.1702274367377090     
   1.1171256919412931     
   1.0640264837518769     
   1.0600231348701690     
   1.0560199577848779     
   1.0520169524960039     
   1.0480141190035479     
   1.0440114573075090     
   1.0400089674078870     
   1.0360066493046829     
   1.0320045029978959     
   1.0280025284875269     
   1.0240007257735750     
   1.0199990948560400     
   1.0159976357349221     
   1.0119963484102219     
   1.0079952328819399     
   1.0039942891500750     
  0.99999351721462670     
  0.99375402251729383     
  0.98751439252395801     
  0.98127471330280902     
  0.97503507068711792     
  0.96879555024240982     
  0.96255623658935208     
  0.95631721311188012     
  0.95007856277629343     
  0.94384036809289062     
  0.93760271101404602     
  0.93136567147087668     
  0.92512932814348547     
  0.91889375930642636     
  0.91265904281876375     
  0.90642525610652858     
  0.90019247614528797     
  0.87634304464599377     
  0.85248567409631715     
  0.82862103080243676     
  0.80474968213413256     
  0.78087212700407327     
  0.75698879018010001     
  0.73310001600452124     
  0.70920609643639698     
  0.68530727830271665     
  0.66140373602232905     
  0.63749562450299802     
  0.61358304613422043     
  0.58966608681518595     
  0.56574481552758815     
  0.54181928902746646     
  0.51788958607245705     
  0.49608964118127691     
  0.47428698130802133     
  0.45248171232764572     
  0.43067395858937341     
  0.40886412626496932     
  0.38705283038304061     
  0.36524068923561981     
  0.34342831932351670     
  0.32161643459206862     
  0.29980645353421681     
  0.27800009872555748     
  0.25619916908388812     
  0.23440688539485391     
  0.21262771620912649     
  0.19086619008304709     
  0.16912862029223499     
  0.15815684659446419     
  0.14719770434085830     
  0.13625345985225079     
  0.12532675292355899     
  0.11442022309462750     
  0.10353702306275540     
   9.2681987476037245E-002
   8.1860389525365049E-002
   7.1080877849651058E-002
   6.0356261140374332E-002
   4.9700700943068790E-002
   3.9137253058395008E-002